    -----------------------------------------------------------------------
          PSI4: An Open-Source Ab Initio Electronic Structure Package
                              PSI 4.0.0-beta2+ Driver

                                ==> THC Branch <==                         
                                                                           
                     Edward G. Hohenstein, Robert M. Parrish,              
                     C. David Sherrill, and Todd J. Martinez               
                                                                           


    J. M. Turney, A. C. Simmonett, R. M. Parrish, E. G. Hohenstein,
    F. A. Evangelista, J. T. Fermann, B. J. Mintz, L. A. Burns, J. J. Wilke,
    M. L. Abrams, N. J. Russ, M. L. Leininger, C. L. Janssen, E. T. Seidl,
    W. D. Allen, H. F. Schaefer, R. A. King, E. F. Valeev, C. D. Sherrill,
    and T. D. Crawford, WIREs Comput. Mol. Sci., (2011) (doi: 10.1002/wcms.93)

                         Additional Contributions by
    A. E. DePrince, M. Saitow, U. Bozkaya, A. Yu. Sokolov
    -----------------------------------------------------------------------

    Process ID:  13880
    PSI4DATADIR: /usr/local/thc_psi4/PSI4/bin/../share/psi/

    Using LocalCommunicator (Number of processes = 1)

    Memory level set to 256.000 MB

  ==> Input File <==

--------------------------------------------------------------------------
molecule {
O
H 1 R
H 1 R 2 A

R = .9
A = 104.5
}

plugin_load("./fon_hf.so")

set {
  basis sto-3g
}

set fon_hf {
  print 1
}

energy('scf')

plugin("./fon_hf.so")
--------------------------------------------------------------------------
./fon_hf.so loaded.
    Molecular point group: c2v

    Geometry (in Angstrom), charge = 0, multiplicity = 1:

       Center              X                  Y                   Z       
    ------------   -----------------  -----------------  -----------------
           O          0.000000000000     0.000000000000    -0.061664597379
           H          0.000000000000    -0.711620616369     0.489330954652
           H          0.000000000000     0.711620616369     0.489330954652

  -AO BASIS SET INFORMATION:
    Name                   = STO-3G
    Total number of shells = 5
    Number of primitives   = 15
    Number of AO           = 7
    Number of SO           = 7
    Maximum AM             = 1
    Spherical Harmonics    = TRUE

  -Contraction Scheme:
    Atom   Type   All Primitives // Shells:
   ------ ------ --------------------------
       1     O     6s 3p // 2s 1p 
       2     H     3s // 1s 
       3     H     3s // 1s 

  -Basis set on unique center 1: O
     S (        130.70932000           4.25194328)
       (         23.80886100           4.11229372)
       (          6.44360830           1.28162253)
     S (          5.03315130          -0.23941300)
       (          1.16959610           0.32023423)
       (          0.38038900           0.24168557)
     P (          5.03315130           1.67545012)
       (          1.16959610           1.05356801)
       (          0.38038900           0.16690290)

  -Basis set on unique center 2: H
     S (          3.42525091           0.27693436)
       (          0.62391373           0.26783885)
       (          0.16885540           0.08347367)

  -Basis set on unique center 3: H
     S (          3.42525091           0.27693436)
       (          0.62391373           0.26783885)
       (          0.16885540           0.08347367)


*** tstart() called on max-ThinkPad-E570
*** at Thu Oct 18 16:03:09 2018

	There are an even number of electrons - assuming singlet.
	Specify the multiplicity with the MULTP option in the
	input if this is incorrect


         ---------------------------------------------------------
                                   SCF
            by Justin Turney, Rob Parrish, and Andy Simmonett
                              RHF Reference
                        1 Threads,    256 MiB Core
         ---------------------------------------------------------

  ==> Geometry <==

    Molecular point group: c2v

    Geometry (in Angstrom), charge = 0, multiplicity = 1:

       Center              X                  Y                   Z       
    ------------   -----------------  -----------------  -----------------
           O          0.000000000000     0.000000000000    -0.061664597379
           H          0.000000000000    -0.711620616369     0.489330954652
           H          0.000000000000     0.711620616369     0.489330954652

  Running in c2v symmetry.

  Nuclear repulsion =    9.779406144413407

  Charge       = 0
  Multiplicity = 1
  Electrons    = 10
  Nalpha       = 5
  Nbeta        = 5

  ==> Algorithm <==

  SCF Algorithm Type is DIRECT.
  DIIS enabled.
  MOM disabled.
  Fractional occupation disabled.
  Guess Type is CORE.
  Energy threshold   = 1.00e-08
  Density threshold  = 1.00e-08
  Integral threshold = 0.00e+00

  ==> Primary Basis <==

	  Basis Set: STO-3G
	    Number of shells: 5
	    Number of basis function: 7
	    Number of Cartesian functions: 7
	    Spherical Harmonics?: true
	    Max angular momentum: 1

  ==> Pre-Iterations <==

   -------------------------------------------------------
    Irrep   Nso     Nmo     Nalpha   Nbeta   Ndocc  Nsocc
   -------------------------------------------------------
     A1         4       4       0       0       0       0
     A2         0       0       0       0       0       0
     B1         1       1       0       0       0       0
     B2         2       2       0       0       0       0
   -------------------------------------------------------
    Total       7       7       5       5       5       0
   -------------------------------------------------------

  Starting with a DF guess...

 OEINTS: Wrapper to libmints.
   by Justin Turney

   Calculation information:
      Number of atoms:                   3
      Number of AO shells:               5
      Number of SO shells:               4
      Number of primitives:             15
      Number of atomic orbitals:         7
      Number of basis functions:         7

      Number of irreps:                  4
      Number of functions per irrep: [   4    0    1    2 ]

      Overlap, kinetic, and potential integrals
        stored in file 35.

  ==> Integral Setup <==

  ==> DFJK: Density-Fitted J/K Matrices <==

    J tasked:                  Yes
    K tasked:                  Yes
    wK tasked:                  No
    OpenMP threads:              1
    Integrals threads:           1
    Memory (MB):               183
    Algorithm:                Core
    Integral Cache:           NONE
    Schwarz Cutoff:          0E+00
    Fitting Condition:       1E-12

   => Auxiliary Basis Set <=

	  Basis Set: CC-PVDZ-JKFIT
	    Number of shells: 42
	    Number of basis function: 116
	    Number of Cartesian functions: 131
	    Spherical Harmonics?: true
	    Max angular momentum: 3

  Minimum eigenvalue in the overlap matrix is 3.0451397022E-01.
  Using Symmetric Orthogonalization.
  SCF Guess: Core (One-Electron) Hamiltonian.

  Initial RHF energy:   -54.26441228789107

  ==> Iterations <==

                        Total Energy        Delta E     Density RMS

   @RHF iter   1:   -73.19700007804238   -1.89326e+01   0.00000e+00 
   @RHF iter   2:   -74.93914529147867   -1.74215e+00   4.14037e-01 DIIS
   @RHF iter   3:   -74.94460396320923   -5.45867e-03   2.38951e-02 DIIS
   @RHF iter   4:   -74.94503022571374   -4.26263e-04   8.25736e-03 DIIS
   @RHF iter   5:   -74.94505038727226   -2.01616e-05   1.87965e-03 DIIS
   @RHF iter   6:   -74.94505106082218   -6.73550e-07   3.38689e-04 DIIS
   @RHF iter   7:   -74.94505106261423   -1.79205e-09   1.42869e-05 DIIS
   @RHF iter   8:   -74.94505106261425   -2.84217e-14   5.30954e-08 DIIS

  DF guess converged.

  ==> Integral Setup <==

  ==> DirectJK: Integral-Direct J/K Matrices <==

    J tasked:                  Yes
    K tasked:                  Yes
    wK tasked:                  No
    Integrals threads:           1
    Schwarz Cutoff:          0E+00

   @RHF iter   9:   -74.94502101037963    3.00522e-05   8.87438e-10 DIIS
   @RHF iter  10:   -74.94502101052157   -1.41938e-10   3.98665e-06 DIIS
   @RHF iter  11:   -74.94502101053735   -1.57740e-11   1.63214e-06 DIIS
   @RHF iter  12:   -74.94502101053803   -6.82121e-13   3.11747e-07 DIIS
   @RHF iter  13:   -74.94502101053811   -8.52651e-14   8.47709e-08 DIIS

  ==> Post-Iterations <==

	Orbital Energies (a.u.)
	-----------------------

	Doubly Occupied:                                                      

	   1A1   -20.236192     2A1    -1.300480     1B2    -0.649309  
	   3A1    -0.460194     1B1    -0.396298  

	Virtual:                                                              

	   4A1     0.664827     2B2     0.813314  

	Final Occupation by Irrep:
	         A1    A2    B1    B2 
	DOCC [     3,    0,    1,    1 ]

  Energy converged.

  @RHF Final Energy:   -74.94502101053811

   => Energetics <=

    Nuclear Repulsion Energy =          9.7794061444134073
    One-Electron Energy =            -123.3639077707137517
    Two-Electron Energy =              38.6394806157622526
    DFT Functional Energy =             0.0000000000000000
    Empirical Dispersion Energy =       0.0000000000000000
    Total Energy =                    -74.9450210105380989

  ==> Properties <==

  Nuclear Dipole Moment: (a.u.)
     X:     0.0000      Y:     0.0000      Z:     0.9172

  Electronic Dipole Moment: (a.u.)
     X:     0.0000      Y:     0.0000      Z:    -0.2095

  Dipole Moment: (a.u.)
     X:     0.0000      Y:     0.0000      Z:     0.7076     Total:     0.7076

  Dipole Moment: (Debye)
     X:     0.0000      Y:     0.0000      Z:     1.7986     Total:     1.7986


  Saving occupied orbitals to File 180.

*** tstop() called on max-ThinkPad-E570 at Thu Oct 18 16:03:09 2018
Module time:
	user time   =       0.18 seconds =       0.00 minutes
	system time =       0.01 seconds =       0.00 minutes
	total time  =          0 seconds =       0.00 minutes
Total time:
	user time   =       0.18 seconds =       0.00 minutes
	system time =       0.01 seconds =       0.00 minutes
	total time  =          0 seconds =       0.00 minutes
Reading options from the FON_HF block
Calling plugin ./fon_hf.so.


--------------Beginning of customized output------------

Pre-iteration info:
Number of orbital: 7
Number of atoms: 3
Reference energy: -74.945021
Number of electrons: 10
Nuclear repulsion energy: 9.779406
Automatically setting 4/3 active space

 # Orbital energies #
 Irrep: 1
      1: -32.7922233
      2: -8.4067292
      3: -7.8240116
      4: -7.5121342
      5: -7.5087201
      6: -4.3346312
      7: -4.2818959


 # Orbital populations #
 Irrep: 1
      1:  2.0000000
      2:  1.9985727
      3:  1.9924793
      4:  1.9817649
      5:  1.9815878
      6:  0.0244932
      7:  0.0211035

Total population: 10.000002
Beginning iterating. Convergence thresholds: Delta: 1.000000e-08 S-D-F Commutator: 1.000000e-08 
Using DIIS for convergence acceleration
Temperature used for FON: 0.350000 atomic units
Tolerance for forcing the sum of fractional occupations to sum to the correct electron #: 1.000000e-07

Iter eelec                etotal              delta                  max_commutator
0  -127.93809192420635  -118.15868577979293  -118.15868577979293     0.26091929901102
1   -79.80739531661602   -70.02798917220261    48.13069660759032     0.04222348924661
2   -83.79330860037923   -74.01390245596582    -3.98591328376321     0.01034305739717
3   -83.75721261090497   -73.97780646649156     0.03609598947426     0.00270733079701
4   -83.71507846220551   -73.93567231779210     0.04213414869946     0.00037898519331
5   -83.71293290523870   -73.93352676082529     0.00214555696681     0.00001767002263
6   -83.71316420570366   -73.93375806129026    -0.00023130046497     0.00000128593520
7   -83.71316427867677   -73.93375813426337    -0.00000007297311     0.00000129039070
8   -83.71322311012987   -73.93381696571646    -0.00005883145309     0.00000051742944
9   -83.71316628182069   -73.93376013740729     0.00005682830917     0.00000005138993
10   -83.71317838280294   -73.93377223838954    -0.00001210098225     0.00000014509388
11   -83.71313053425618   -73.93372438984278     0.00004784854676     0.00000038112067
12   -83.71317454071053   -73.93376839629713    -0.00004400645435     0.00000010532263
13   -83.71336628884556   -73.93396014443215    -0.00019174813502     0.00000225555389
14   -83.71313772464177   -73.93373158022837     0.00022856420378     0.00000030887593
15   -83.71316240357430   -73.93375625916090    -0.00002467893253     0.00000003097364
16   -83.71316242847865   -73.93375628406525    -0.00000002490435     0.00000003069759
17   -83.71316231755229   -73.93375617313887     0.00000011092638     0.00000003192578
18   -83.71316248335852   -73.93375633894510    -0.00000016580623     0.00000003008954
19   -83.71316239301629   -73.93375624860289     0.00000009034221     0.00000003109000
20   -83.71316239559707   -73.93375625118367    -0.00000000258078     0.00000003106152
Iterations converged delta_energy in iterations
Final orbital energies and populations: 

 # Orbital energies #
 Irrep: 1
      1: -20.3017822
      2: -1.3140526
      3: -0.6379791
      4: -0.4527566
      5: -0.3361963
      6:  0.5393243
      7:  0.6913516


 # Orbital populations #
 Irrep: 1
      1:  2.0000000
      2:  1.9714956
      3:  1.8185562
      4:  1.7103166
      5:  1.6177187
      6:  0.5150502
      7:  0.3668731

Total population: 10.000002
Reference energy from built in SCF: -74.945021
Difference between your procedure and reference SCF: 1.011265
Finished with run!

*** PSI4 exiting successfully. Buy a developer a beer!
