    -----------------------------------------------------------------------
          PSI4: An Open-Source Ab Initio Electronic Structure Package
                              PSI 4.0.0-beta2+ Driver

                                ==> THC Branch <==                         
                                                                           
                     Edward G. Hohenstein, Robert M. Parrish,              
                     C. David Sherrill, and Todd J. Martinez               
                                                                           


    J. M. Turney, A. C. Simmonett, R. M. Parrish, E. G. Hohenstein,
    F. A. Evangelista, J. T. Fermann, B. J. Mintz, L. A. Burns, J. J. Wilke,
    M. L. Abrams, N. J. Russ, M. L. Leininger, C. L. Janssen, E. T. Seidl,
    W. D. Allen, H. F. Schaefer, R. A. King, E. F. Valeev, C. D. Sherrill,
    and T. D. Crawford, WIREs Comput. Mol. Sci., (2011) (doi: 10.1002/wcms.93)

                         Additional Contributions by
    A. E. DePrince, M. Saitow, U. Bozkaya, A. Yu. Sokolov
    -----------------------------------------------------------------------

    Process ID:  20443
    PSI4DATADIR: /usr/local/thc_psi4/PSI4/bin/../share/psi/

    Using LocalCommunicator (Number of processes = 1)

    Memory level set to 256.000 MB

  ==> Input File <==

--------------------------------------------------------------------------
molecule {
O
H 1 R
H 1 R 2 A

R = 1.1
A = 104
}

plugin_load("./fon_hf.so")

set {
  basis sto-3g
}

set fon_hf {
  print 1
}

energy('scf')

plugin("./fon_hf.so")
--------------------------------------------------------------------------
./fon_hf.so loaded.
    Molecular point group: c2v

    Geometry (in Angstrom), charge = 0, multiplicity = 1:

       Center              X                  Y                   Z       
    ------------   -----------------  -----------------  -----------------
           O          0.000000000000     0.000000000000    -0.075791843589
           H          0.000000000000    -0.866811828967     0.601435779270
           H          0.000000000000     0.866811828967     0.601435779270

  -AO BASIS SET INFORMATION:
    Name                   = STO-3G
    Total number of shells = 5
    Number of primitives   = 15
    Number of AO           = 7
    Number of SO           = 7
    Maximum AM             = 1
    Spherical Harmonics    = TRUE

  -Contraction Scheme:
    Atom   Type   All Primitives // Shells:
   ------ ------ --------------------------
       1     O     6s 3p // 2s 1p 
       2     H     3s // 1s 
       3     H     3s // 1s 

  -Basis set on unique center 1: O
     S (        130.70932000           4.25194328)
       (         23.80886100           4.11229372)
       (          6.44360830           1.28162253)
     S (          5.03315130          -0.23941300)
       (          1.16959610           0.32023423)
       (          0.38038900           0.24168557)
     P (          5.03315130           1.67545012)
       (          1.16959610           1.05356801)
       (          0.38038900           0.16690290)

  -Basis set on unique center 2: H
     S (          3.42525091           0.27693436)
       (          0.62391373           0.26783885)
       (          0.16885540           0.08347367)

  -Basis set on unique center 3: H
     S (          3.42525091           0.27693436)
       (          0.62391373           0.26783885)
       (          0.16885540           0.08347367)


*** tstart() called on max-ThinkPad-E570
*** at Sat Oct 13 21:16:30 2018

	There are an even number of electrons - assuming singlet.
	Specify the multiplicity with the MULTP option in the
	input if this is incorrect


         ---------------------------------------------------------
                                   SCF
            by Justin Turney, Rob Parrish, and Andy Simmonett
                              RHF Reference
                        1 Threads,    256 MiB Core
         ---------------------------------------------------------

  ==> Geometry <==

    Molecular point group: c2v

    Geometry (in Angstrom), charge = 0, multiplicity = 1:

       Center              X                  Y                   Z       
    ------------   -----------------  -----------------  -----------------
           O          0.000000000000     0.000000000000    -0.075791843589
           H          0.000000000000    -0.866811828967     0.601435779270
           H          0.000000000000     0.866811828967     0.601435779270

  Running in c2v symmetry.

  Nuclear repulsion =    8.002366450719078

  Charge       = 0
  Multiplicity = 1
  Electrons    = 10
  Nalpha       = 5
  Nbeta        = 5

  ==> Algorithm <==

  SCF Algorithm Type is DIRECT.
  DIIS enabled.
  MOM disabled.
  Fractional occupation disabled.
  Guess Type is CORE.
  Energy threshold   = 1.00e-08
  Density threshold  = 1.00e-08
  Integral threshold = 0.00e+00

  ==> Primary Basis <==

	  Basis Set: STO-3G
	    Number of shells: 5
	    Number of basis function: 7
	    Number of Cartesian functions: 7
	    Spherical Harmonics?: true
	    Max angular momentum: 1

  ==> Pre-Iterations <==

   -------------------------------------------------------
    Irrep   Nso     Nmo     Nalpha   Nbeta   Ndocc  Nsocc
   -------------------------------------------------------
     A1         4       4       0       0       0       0
     A2         0       0       0       0       0       0
     B1         1       1       0       0       0       0
     B2         2       2       0       0       0       0
   -------------------------------------------------------
    Total       7       7       5       5       5       0
   -------------------------------------------------------

  Starting with a DF guess...

 OEINTS: Wrapper to libmints.
   by Justin Turney

   Calculation information:
      Number of atoms:                   3
      Number of AO shells:               5
      Number of SO shells:               4
      Number of primitives:             15
      Number of atomic orbitals:         7
      Number of basis functions:         7

      Number of irreps:                  4
      Number of functions per irrep: [   4    0    1    2 ]

      Overlap, kinetic, and potential integrals
        stored in file 35.

  ==> Integral Setup <==

  ==> DFJK: Density-Fitted J/K Matrices <==

    J tasked:                  Yes
    K tasked:                  Yes
    wK tasked:                  No
    OpenMP threads:              1
    Integrals threads:           1
    Memory (MB):               183
    Algorithm:                Core
    Integral Cache:           NONE
    Schwarz Cutoff:          0E+00
    Fitting Condition:       1E-12

   => Auxiliary Basis Set <=

	  Basis Set: CC-PVDZ-JKFIT
	    Number of shells: 42
	    Number of basis function: 116
	    Number of Cartesian functions: 131
	    Spherical Harmonics?: true
	    Max angular momentum: 3

  Minimum eigenvalue in the overlap matrix is 4.3422219878E-01.
  Using Symmetric Orthogonalization.
  SCF Guess: Core (One-Electron) Hamiltonian.

  Initial RHF energy:   -54.91867187030222

  ==> Iterations <==

                        Total Energy        Delta E     Density RMS

   @RHF iter   1:   -73.28585429061432   -1.83672e+01   0.00000e+00 
   @RHF iter   2:   -74.82821959076306   -1.54237e+00   3.98598e-01 DIIS
   @RHF iter   3:   -74.93874865848034   -1.10529e-01   8.79492e-02 DIIS
   @RHF iter   4:   -74.94187671936200   -3.12806e-03   2.03201e-02 DIIS
   @RHF iter   5:   -74.94208021240853   -2.03493e-04   4.19944e-03 DIIS
   @RHF iter   6:   -74.94210567208067   -2.54597e-05   1.95944e-03 DIIS
   @RHF iter   7:   -74.94210579993700   -1.27856e-07   1.45193e-04 DIIS
   @RHF iter   8:   -74.94210579994215   -5.15854e-12   8.76141e-07 DIIS
   @RHF iter   9:   -74.94210579994207    8.52651e-14   1.96491e-08 DIIS

  DF guess converged.

  ==> Integral Setup <==

  ==> DirectJK: Integral-Direct J/K Matrices <==

    J tasked:                  Yes
    K tasked:                  Yes
    wK tasked:                  No
    Integrals threads:           1
    Schwarz Cutoff:          0E+00

   @RHF iter  10:   -74.94207989668595    2.59033e-05   1.36912e-11 DIIS
   @RHF iter  11:   -74.94207989706325   -3.77298e-10   5.85634e-06 DIIS
   @RHF iter  12:   -74.94207989707843   -1.51772e-11   7.96611e-07 DIIS
   @RHF iter  13:   -74.94207989707942   -9.94760e-13   3.54267e-07 DIIS
   @RHF iter  14:   -74.94207989707948   -5.68434e-14   6.21214e-08 DIIS
   @RHF iter  15:   -74.94207989707945    2.84217e-14   1.43222e-08 DIIS

  ==> Post-Iterations <==

	Orbital Energies (a.u.)
	-----------------------

	Doubly Occupied:                                                      

	   1A1   -20.262892     2A1    -1.209697     1B2    -0.547965  
	   3A1    -0.436527     1B1    -0.387587  

	Virtual:                                                              

	   4A1     0.477619     2B2     0.588139  

	Final Occupation by Irrep:
	         A1    A2    B1    B2 
	DOCC [     3,    0,    1,    1 ]

  Energy converged.

  @RHF Final Energy:   -74.94207989707945

   => Energetics <=

    Nuclear Repulsion Energy =          8.0023664507190784
    One-Electron Energy =            -120.1995577038467218
    Two-Electron Energy =              37.2551113560481895
    DFT Functional Energy =             0.0000000000000000
    Empirical Dispersion Energy =       0.0000000000000000
    Total Energy =                    -74.9420798970794522

  ==> Properties <==

  Nuclear Dipole Moment: (a.u.)
     X:     0.0000      Y:     0.0000      Z:     1.1273

  Electronic Dipole Moment: (a.u.)
     X:     0.0000      Y:     0.0000      Z:    -0.5238

  Dipole Moment: (a.u.)
     X:     0.0000      Y:     0.0000      Z:     0.6035     Total:     0.6035

  Dipole Moment: (Debye)
     X:     0.0000      Y:     0.0000      Z:     1.5340     Total:     1.5340


  Saving occupied orbitals to File 180.

*** tstop() called on max-ThinkPad-E570 at Sat Oct 13 21:16:30 2018
Module time:
	user time   =       0.18 seconds =       0.00 minutes
	system time =       0.00 seconds =       0.00 minutes
	total time  =          0 seconds =       0.00 minutes
Total time:
	user time   =       0.18 seconds =       0.00 minutes
	system time =       0.00 seconds =       0.00 minutes
	total time  =          0 seconds =       0.00 minutes
Reading options from the FON_HF block
Calling plugin ./fon_hf.so.


--------------Beginning of customized output------------

Pre-iteration info:
Number of orbital: 7
Number of atoms: 3
Reference energy: -74.942080
Number of electrons: 10
Nuclear repulsion energy: 8.002366
Automatically setting 4/3 active space

 # Orbital energies #
 Irrep: 1
      1: -32.5783028
      2: -8.0815356
      3: -7.5500859
      4: -7.3639692
      5: -7.3471448
      6: -4.0022985
      7: -3.9811110


 # Orbital populations #
 Irrep: 1
      1:  2.0000000
      2:  1.9982337
      3:  1.9919622
      4:  1.9863587
      5:  1.9856918
      6:  0.0194397
      7:  0.0183083

Total population: 9.999994
Beginning iterating. Convergence thresholds: Delta: 1.000000e-08 S-D-F Commutator: 1.000000e-08 
Using DIIS for convergence acceleration
Temperature used for FON: 0.350000 atomic units
Tolerance for forcing the sum of fractional occupations to sum to the correct electron #: 1.000000e-07

Iter eelec                etotal              delta                  max_commutator
0  -125.71222889698963  -117.70986244627055  -117.70986244627055     0.22417063930997

 # Orbital energies #
 Irrep: 1
      1: -18.8498173
      2: -0.6722357
      3: -0.1158374
      4:  0.1262934
      5:  0.3001655
      6:  0.5522239
      7:  0.6693687


 # Orbital populations #
 Irrep: 1
      1:  2.0000000
      2:  1.9292494
      3:  1.6952299
      4:  1.4715851
      5:  1.2577698
      6:  0.9039318
      7:  0.7422328

1   -77.31191529897535   -69.30954884825627    48.40031359801428     0.06929906538676

 # Orbital energies #
 Irrep: 1
      1: -20.3596821
      2: -1.2291067
      3: -0.5086146
      4: -0.4021924
      5: -0.2881069
      6:  0.2809127
      7:  0.3805330


 # Orbital populations #
 Irrep: 1
      1:  2.0000000
      2:  1.9527599
      3:  1.6813362
      4:  1.5912412
      5:  1.4750661
      6:  0.7120841
      7:  0.5875109

2   -81.91553760259848   -73.91317115187940    -4.60362230362313     0.00936957285861

 # Orbital energies #
 Irrep: 1
      1: -20.3553331
      2: -1.2394669
      3: -0.5271690
      4: -0.4174994
      5: -0.2946904
      6:  0.3125159
      7:  0.4209481


 # Orbital populations #
 Irrep: 1
      1:  2.0000000
      2:  1.9553331
      3:  1.7023753
      4:  1.6139911
      5:  1.4928828
      6:  0.6836584
      7:  0.5517727

3   -81.92705340856489   -73.92468695784581    -0.01151580596641     0.00332532899118

 # Orbital energies #
 Irrep: 1
      1: -20.3317101
      2: -1.2288996
      3: -0.5220858
      4: -0.4127306
      5: -0.2925428
      6:  0.3224309
      7:  0.4331802


 # Orbital populations #
 Irrep: 1
      1:  2.0000000
      2:  1.9549227
      3:  1.7039708
      4:  1.6162321
      5:  1.4984267
      6:  0.6802907
      7:  0.5461515

4   -81.85836110473781   -73.85599465401873     0.06869230382708     0.00053565370966

 # Orbital energies #
 Irrep: 1
      1: -20.3288829
      2: -1.2277447
      3: -0.5203965
      4: -0.4119360
      5: -0.2941098
      6:  0.3235580
      7:  0.4350576


 # Orbital populations #
 Irrep: 1
      1:  2.0000000
      2:  1.9548732
      3:  1.7033019
      4:  1.6162031
      5:  1.5009231
      6:  0.6798224
      7:  0.5448871

5   -81.84999090897082   -73.84762445825174     0.00837019576699     0.00001367423709

 # Orbital energies #
 Irrep: 1
      1: -20.3291696
      2: -1.2279143
      3: -0.5204562
      4: -0.4119950
      5: -0.2942185
      6:  0.3234791
      7:  0.4350578


 # Orbital populations #
 Irrep: 1
      1:  2.0000000
      2:  1.9548903
      3:  1.7033205
      4:  1.6162254
      5:  1.5010031
      6:  0.6798802
      7:  0.5448485

6   -81.85134799322039   -73.84898154250131    -0.00135708424956     0.00000412811346

 # Orbital energies #
 Irrep: 1
      1: -20.3289278
      2: -1.2277377
      3: -0.5203117
      4: -0.4118417
      5: -0.2940463
      6:  0.3236164
      7:  0.4352298


 # Orbital populations #
 Irrep: 1
      1:  2.0000000
      2:  1.9548840
      3:  1.7033076
      4:  1.6162017
      5:  1.5009543
      6:  0.6798664
      7:  0.5447969

7   -81.84984181050351   -73.84747535978443     0.00150618271688     0.00001368167994

 # Orbital energies #
 Irrep: 1
      1: -20.3291019
      2: -1.2278632
      3: -0.5204170
      4: -0.4119507
      5: -0.2941608
      6:  0.3235133
      7:  0.4351058


 # Orbital populations #
 Irrep: 1
      1:  2.0000000
      2:  1.9548859
      3:  1.7033042
      4:  1.6162008
      5:  1.5009591
      6:  0.6798575
      7:  0.5448129

8   -81.85060223361344   -73.84823578289436    -0.00076042310994     0.00000323910487

 # Orbital energies #
 Irrep: 1
      1: -20.3290940
      2: -1.2278574
      3: -0.5204118
      4: -0.4119455
      5: -0.2941555
      6:  0.3235179
      7:  0.4351107


 # Orbital populations #
 Irrep: 1
      1:  2.0000000
      2:  1.9548852
      3:  1.7033007
      4:  1.6161966
      5:  1.5009538
      6:  0.6798522
      7:  0.5448078

9   -81.85049437625565   -73.84812792553657     0.00010785735779     0.00000442316717

 # Orbital energies #
 Irrep: 1
      1: -20.3291250
      2: -1.2278794
      3: -0.5204337
      4: -0.4119668
      5: -0.2941704
      6:  0.3234979
      7:  0.4350948


 # Orbital populations #
 Irrep: 1
      1:  2.0000000
      2:  1.9548857
      3:  1.7033033
      4:  1.6161992
      5:  1.5009501
      6:  0.6798543
      7:  0.5448050

10   -81.85062997843953   -73.84826352772045    -0.00013560218387     0.00000257239288

 # Orbital energies #
 Irrep: 1
      1: -20.3291289
      2: -1.2278828
      3: -0.5204358
      4: -0.4119691
      5: -0.2941763
      6:  0.3234967
      7:  0.4350907


 # Orbital populations #
 Irrep: 1
      1:  2.0000000
      2:  1.9548857
      3:  1.7033022
      4:  1.6161980
      5:  1.5009527
      6:  0.6798513
      7:  0.5448056

11   -81.85064168716596   -73.84827523644688    -0.00001170872643     0.00000262501334

 # Orbital energies #
 Irrep: 1
      1: -20.3292331
      2: -1.2279604
      3: -0.5205068
      4: -0.4120389
      5: -0.2942487
      6:  0.3234362
      7:  0.4350271


 # Orbital populations #
 Irrep: 1
      1:  2.0000000
      2:  1.9548870
      3:  1.7033047
      4:  1.6162001
      5:  1.5009579
      6:  0.6798422
      7:  0.5448012

12   -81.85108818020092   -73.84872172948184    -0.00044649303496     0.00000217729048

 # Orbital energies #
 Irrep: 1
      1: -20.3292091
      2: -1.2279426
      3: -0.5204905
      4: -0.4120228
      5: -0.2942321
      6:  0.3234501
      7:  0.4350418


 # Orbital populations #
 Irrep: 1
      1:  2.0000000
      2:  1.9548868
      3:  1.7033048
      4:  1.6162004
      5:  1.5009578
      6:  0.6798455
      7:  0.5448031

13   -81.85100048237730   -73.84863403165822     0.00008769782362     0.00000122542514

 # Orbital energies #
 Irrep: 1
      1: -20.3291850
      2: -1.2279246
      3: -0.5204741
      4: -0.4120067
      5: -0.2942154
      6:  0.3234641
      7:  0.4350565


 # Orbital populations #
 Irrep: 1
      1:  2.0000000
      2:  1.9548864
      3:  1.7033040
      4:  1.6161996
      5:  1.5009561
      6:  0.6798471
      7:  0.5448038

14   -81.85089123616225   -73.84852478544317     0.00010924621505     0.00000005591299

 # Orbital energies #
 Irrep: 1
      1: -20.3291837
      2: -1.2279236
      3: -0.5204732
      4: -0.4120058
      5: -0.2942144
      6:  0.3234649
      7:  0.4350573


 # Orbital populations #
 Irrep: 1
      1:  2.0000000
      2:  1.9548867
      3:  1.7033058
      4:  1.6162019
      5:  1.5009589
      6:  0.6798506
      7:  0.5448069

15   -81.85092776002152   -73.84856130930244    -0.00003652385927     0.00000045046117

 # Orbital energies #
 Irrep: 1
      1: -20.3291851
      2: -1.2279247
      3: -0.5204741
      4: -0.4120068
      5: -0.2942154
      6:  0.3234640
      7:  0.4350564


 # Orbital populations #
 Irrep: 1
      1:  2.0000000
      2:  1.9548866
      3:  1.7033049
      4:  1.6162008
      5:  1.5009575
      6:  0.6798487
      7:  0.5448053

16   -81.85091220444956   -73.84854575373048     0.00001555557196     0.00000028228363

 # Orbital energies #
 Irrep: 1
      1: -20.3291862
      2: -1.2279255
      3: -0.5204749
      4: -0.4120075
      5: -0.2942162
      6:  0.3234634
      7:  0.4350557


 # Orbital populations #
 Irrep: 1
      1:  2.0000000
      2:  1.9548864
      3:  1.7033040
      4:  1.6161997
      5:  1.5009562
      6:  0.6798470
      7:  0.5448038

17   -81.85089651032587   -73.84853005960679     0.00001569412369     0.00000011267779

 # Orbital energies #
 Irrep: 1
      1: -20.3291864
      2: -1.2279256
      3: -0.5204750
      4: -0.4120076
      5: -0.2942163
      6:  0.3234633
      7:  0.4350556


 # Orbital populations #
 Irrep: 1
      1:  2.0000000
      2:  1.9548868
      3:  1.7033063
      4:  1.6162024
      5:  1.5009595
      6:  0.6798510
      7:  0.5448073

18   -81.85094734656869   -73.84858089584961    -0.00005083624282     0.00000066141332

 # Orbital energies #
 Irrep: 1
      1: -20.3291881
      2: -1.2279269
      3: -0.5204762
      4: -0.4120088
      5: -0.2942175
      6:  0.3234623
      7:  0.4350546


 # Orbital populations #
 Irrep: 1
      1:  2.0000000
      2:  1.9548864
      3:  1.7033035
      4:  1.6161990
      5:  1.5009555
      6:  0.6798459
      7:  0.5448028

19   -81.85089254457493   -73.84852609385585     0.00005480199376     0.00000006953034

 # Orbital energies #
 Irrep: 1
      1: -20.3291892
      2: -1.2279277
      3: -0.5204769
      4: -0.4120095
      5: -0.2942183
      6:  0.3234617
      7:  0.4350539


 # Orbital populations #
 Irrep: 1
      1:  2.0000000
      2:  1.9548865
      3:  1.7033043
      4:  1.6162000
      5:  1.5009566
      6:  0.6798471
      7:  0.5448039

20   -81.85091379051023   -73.84854733979115    -0.00002124593530     0.00000029868350

 # Orbital energies #
 Irrep: 1
      1: -20.3291873
      2: -1.2279264
      3: -0.5204757
      4: -0.4120082
      5: -0.2942170
      6:  0.3234627
      7:  0.4350550


 # Orbital populations #
 Irrep: 1
      1:  2.0000000
      2:  1.9548868
      3:  1.7033059
      4:  1.6162020
      5:  1.5009590
      6:  0.6798503
      7:  0.5448067

21   -81.85094362389837   -73.84857717317929    -0.00002983338814     0.00000062105773

 # Orbital energies #
 Irrep: 1
      1: -20.3291881
      2: -1.2279269
      3: -0.5204762
      4: -0.4120088
      5: -0.2942175
      6:  0.3234623
      7:  0.4350546


 # Orbital populations #
 Irrep: 1
      1:  2.0000000
      2:  1.9548864
      3:  1.7033035
      4:  1.6161990
      5:  1.5009554
      6:  0.6798459
      7:  0.5448028

22   -81.85089250171387   -73.84852605099479     0.00005112218450     0.00000006906806

 # Orbital energies #
 Irrep: 1
      1: -20.3291876
      2: -1.2279266
      3: -0.5204758
      4: -0.4120084
      5: -0.2942171
      6:  0.3234626
      7:  0.4350549


 # Orbital populations #
 Irrep: 1
      1:  2.0000000
      2:  1.9548867
      3:  1.7033052
      4:  1.6162012
      5:  1.5009580
      6:  0.6798490
      7:  0.5448056

23   -81.85092903582593   -73.84856258510685    -0.00003653411206     0.00000046353733

 # Orbital energies #
 Irrep: 1
      1: -20.3291878
      2: -1.2279267
      3: -0.5204760
      4: -0.4120086
      5: -0.2942173
      6:  0.3234625
      7:  0.4350548


 # Orbital populations #
 Irrep: 1
      1:  2.0000000
      2:  1.9548868
      3:  1.7033060
      4:  1.6162020
      5:  1.5009591
      6:  0.6798503
      7:  0.5448067

24   -81.85094571250484   -73.84857926178576    -0.00001667667891     0.00000064352093

 # Orbital energies #
 Irrep: 1
      1: -20.3291879
      2: -1.2279267
      3: -0.5204760
      4: -0.4120086
      5: -0.2942173
      6:  0.3234624
      7:  0.4350547


 # Orbital populations #
 Irrep: 1
      1:  2.0000000
      2:  1.9548865
      3:  1.7033041
      4:  1.6161997
      5:  1.5009563
      6:  0.6798469
      7:  0.5448037

25   -81.85090364494434   -73.84853719422526     0.00004206756050     0.00000018940512

 # Orbital energies #
 Irrep: 1
      1: -20.3291877
      2: -1.2279266
      3: -0.5204759
      4: -0.4120085
      5: -0.2942172
      6:  0.3234625
      7:  0.4350548


 # Orbital populations #
 Irrep: 1
      1:  2.0000000
      2:  1.9548870
      3:  1.7033073
      4:  1.6162037
      5:  1.5009610
      6:  0.6798526
      7:  0.5448088

26   -81.85097483005474   -73.84860837933566    -0.00007118511040     0.00000095785241

 # Orbital energies #
 Irrep: 1
      1: -20.3291879
      2: -1.2279267
      3: -0.5204760
      4: -0.4120086
      5: -0.2942173
      6:  0.3234624
      7:  0.4350547


 # Orbital populations #
 Irrep: 1
      1:  2.0000000
      2:  1.9548865
      3:  1.7033041
      4:  1.6161997
      5:  1.5009563
      6:  0.6798469
      7:  0.5448037

27   -81.85090365065633   -73.84853719993725     0.00007117939840     0.00000018946671

 # Orbital energies #
 Irrep: 1
      1: -20.3291884
      2: -1.2279271
      3: -0.5204764
      4: -0.4120090
      5: -0.2942177
      6:  0.3234621
      7:  0.4350544


 # Orbital populations #
 Irrep: 1
      1:  2.0000000
      2:  1.9548869
      3:  1.7033063
      4:  1.6162025
      5:  1.5009596
      6:  0.6798509
      7:  0.5448072

28   -81.85095612144030   -73.84858967072122    -0.00005247078397     0.00000075578022

 # Orbital energies #
 Irrep: 1
      1: -20.3291879
      2: -1.2279268
      3: -0.5204760
      4: -0.4120086
      5: -0.2942174
      6:  0.3234624
      7:  0.4350547


 # Orbital populations #
 Irrep: 1
      1:  2.0000000
      2:  1.9548865
      3:  1.7033043
      4:  1.6162001
      5:  1.5009567
      6:  0.6798474
      7:  0.5448042

29   -81.85091055185396   -73.84854410113488     0.00004556958635     0.00000026395091

 # Orbital energies #
 Irrep: 1
      1: -20.3291878
      2: -1.2279267
      3: -0.5204760
      4: -0.4120086
      5: -0.2942173
      6:  0.3234625
      7:  0.4350548


 # Orbital populations #
 Irrep: 1
      1:  2.0000000
      2:  1.9548868
      3:  1.7033059
      4:  1.6162020
      5:  1.5009591
      6:  0.6798503
      7:  0.5448067

30   -81.85094560124556   -73.84857915052648    -0.00003504939160     0.00000064232125

 # Orbital energies #
 Irrep: 1
      1: -20.3291883
      2: -1.2279271
      3: -0.5204763
      4: -0.4120089
      5: -0.2942177
      6:  0.3234622
      7:  0.4350544


 # Orbital populations #
 Irrep: 1
      1:  2.0000000
      2:  1.9548867
      3:  1.7033054
      4:  1.6162014
      5:  1.5009583
      6:  0.6798493
      7:  0.5448059

31   -81.85093638899376   -73.84856993827468     0.00000921225180     0.00000054278418

 # Orbital energies #
 Irrep: 1
      1: -20.3291873
      2: -1.2279263
      3: -0.5204756
      4: -0.4120082
      5: -0.2942169
      6:  0.3234628
      7:  0.4350551


 # Orbital populations #
 Irrep: 1
      1:  2.0000000
      2:  1.9548866
      3:  1.7033049
      4:  1.6162007
      5:  1.5009575
      6:  0.6798484
      7:  0.5448050

32   -81.85091955273057   -73.84855310201149     0.00001683626319     0.00000036122374

 # Orbital energies #
 Irrep: 1
      1: -20.3291884
      2: -1.2279272
      3: -0.5204764
      4: -0.4120090
      5: -0.2942177
      6:  0.3234621
      7:  0.4350544


 # Orbital populations #
 Irrep: 1
      1:  2.0000000
      2:  1.9548867
      3:  1.7033055
      4:  1.6162014
      5:  1.5009583
      6:  0.6798493
      7:  0.5448059

33   -81.85093693177103   -73.84857048105195    -0.00001737904046     0.00000054862366

 # Orbital energies #
 Irrep: 1
      1: -20.3291874
      2: -1.2279264
      3: -0.5204757
      4: -0.4120083
      5: -0.2942170
      6:  0.3234627
      7:  0.4350550


 # Orbital populations #
 Irrep: 1
      1:  2.0000000
      2:  1.9548865
      3:  1.7033040
      4:  1.6161997
      5:  1.5009562
      6:  0.6798469
      7:  0.5448037

34   -81.85090130799452   -73.84853485727544     0.00003562377651     0.00000016426410

 # Orbital energies #
 Irrep: 1
      1: -20.3291895
      2: -1.2279280
      3: -0.5204771
      4: -0.4120097
      5: -0.2942185
      6:  0.3234615
      7:  0.4350537


 # Orbital populations #
 Irrep: 1
      1:  2.0000000
      2:  1.9548867
      3:  1.7033055
      4:  1.6162014
      5:  1.5009584
      6:  0.6798492
      7:  0.5448058

35   -81.85094154972852   -73.84857509900944    -0.00004024173400     0.00000059828814

 # Orbital energies #
 Irrep: 1
      1: -20.3291882
      2: -1.2279270
      3: -0.5204762
      4: -0.4120088
      5: -0.2942176
      6:  0.3234622
      7:  0.4350545


 # Orbital populations #
 Irrep: 1
      1:  2.0000000
      2:  1.9548869
      3:  1.7033063
      4:  1.6162025
      5:  1.5009596
      6:  0.6798509
      7:  0.5448072

36   -81.85095512186359   -73.84858867114451    -0.00001357213507     0.00000074502385

 # Orbital energies #
 Irrep: 1
      1: -20.3291962
      2: -1.2279330
      3: -0.5204817
      4: -0.4120142
      5: -0.2942231
      6:  0.3234576
      7:  0.4350496


 # Orbital populations #
 Irrep: 1
      1:  2.0000000
      2:  1.9548867
      3:  1.7033052
      4:  1.6162010
      5:  1.5009581
      6:  0.6798479
      7:  0.5448048

37   -81.85096063437747   -73.84859418365839    -0.00000551251388     0.00000080310921

 # Orbital energies #
 Irrep: 1
      1: -20.3291914
      2: -1.2279294
      3: -0.5204784
      4: -0.4120109
      5: -0.2942198
      6:  0.3234604
      7:  0.4350526


 # Orbital populations #
 Irrep: 1
      1:  2.0000000
      2:  1.9548865
      3:  1.7033042
      4:  1.6161999
      5:  1.5009566
      6:  0.6798467
      7:  0.5448037

38   -81.85092064720365   -73.84855419648457     0.00003998717382     0.00000037231635

 # Orbital energies #
 Irrep: 1
      1: -20.3291880
      2: -1.2279268
      3: -0.5204761
      4: -0.4120087
      5: -0.2942174
      6:  0.3234624
      7:  0.4350546


 # Orbital populations #
 Irrep: 1
      1:  2.0000000
      2:  1.9548865
      3:  1.7033042
      4:  1.6161999
      5:  1.5009565
      6:  0.6798471
      7:  0.5448039

39   -81.85090730747281   -73.84854085675373     0.00001333973084     0.00000022891604

 # Orbital energies #
 Irrep: 1
      1: -20.3291871
      2: -1.2279261
      3: -0.5204755
      4: -0.4120081
      5: -0.2942168
      6:  0.3234629
      7:  0.4350552


 # Orbital populations #
 Irrep: 1
      1:  2.0000000
      2:  1.9548867
      3:  1.7033052
      4:  1.6162011
      5:  1.5009580
      6:  0.6798491
      7:  0.5448056

40   -81.85092678307622   -73.84856033235714    -0.00001947560341     0.00000043931739

 # Orbital energies #
 Irrep: 1
      1: -20.3291886
      2: -1.2279273
      3: -0.5204765
      4: -0.4120091
      5: -0.2942178
      6:  0.3234620
      7:  0.4350543


 # Orbital populations #
 Irrep: 1
      1:  2.0000000
      2:  1.9548865
      3:  1.7033044
      4:  1.6162001
      5:  1.5009567
      6:  0.6798473
      7:  0.5448041

41   -81.85091340097449   -73.84854695025541     0.00001338210173     0.00000029458474

 # Orbital energies #
 Irrep: 1
      1: -20.3291966
      2: -1.2279332
      3: -0.5204819
      4: -0.4120144
      5: -0.2942234
      6:  0.3234574
      7:  0.4350494


 # Orbital populations #
 Irrep: 1
      1:  2.0000000
      2:  1.9548863
      3:  1.7033029
      4:  1.6161982
      5:  1.5009546
      6:  0.6798437
      7:  0.5448012

42   -81.85091023239860   -73.84854378167952     0.00000316857589     0.00000025897386

 # Orbital energies #
 Irrep: 1
      1: -20.3292014
      2: -1.2279368
      3: -0.5204852
      4: -0.4120177
      5: -0.2942267
      6:  0.3234546
      7:  0.4350465


 # Orbital populations #
 Irrep: 1
      1:  2.0000000
      2:  1.9549137
      3:  1.7034597
      4:  1.6163906
      5:  1.5011871
      6:  0.6801216
      7:  0.5450468

43   -81.85440699587093   -73.85204054515185    -0.00349676347233     0.00003800072583

 # Orbital energies #
 Irrep: 1
      1: -20.3291908
      2: -1.2279289
      3: -0.5204780
      4: -0.4120106
      5: -0.2942194
      6:  0.3234607
      7:  0.4350529


 # Orbital populations #
 Irrep: 1
      1:  2.0000000
      2:  1.9548863
      3:  1.7033031
      4:  1.6161985
      5:  1.5009548
      6:  0.6798448
      7:  0.5448019

44   -81.85089289351835   -73.84852644279927     0.00351410235258     0.00000007282506

 # Orbital energies #
 Irrep: 1
      1: -20.3291903
      2: -1.2279286
      3: -0.5204777
      4: -0.4120102
      5: -0.2942190
      6:  0.3234610
      7:  0.4350532


 # Orbital populations #
 Irrep: 1
      1:  2.0000000
      2:  1.9548866
      3:  1.7033049
      4:  1.6162008
      5:  1.5009576
      6:  0.6798482
      7:  0.5448049

45   -81.85093261704962   -73.84856616633054    -0.00003972353127     0.00000050171660

 # Orbital energies #
 Irrep: 1
      1: -20.3291902
      2: -1.2279285
      3: -0.5204776
      4: -0.4120101
      5: -0.2942189
      6:  0.3234611
      7:  0.4350533


 # Orbital populations #
 Irrep: 1
      1:  2.0000000
      2:  1.9548864
      3:  1.7033037
      4:  1.6161993
      5:  1.5009558
      6:  0.6798460
      7:  0.5448030

46   -81.85090546139101   -73.84853901067193     0.00002715565861     0.00000020860410

 # Orbital energies #
 Irrep: 1
      1: -20.3291905
      2: -1.2279287
      3: -0.5204778
      4: -0.4120104
      5: -0.2942192
      6:  0.3234609
      7:  0.4350531


 # Orbital populations #
 Irrep: 1
      1:  2.0000000
      2:  1.9548867
      3:  1.7033053
      4:  1.6162012
      5:  1.5009582
      6:  0.6798488
      7:  0.5448055

47   -81.85094180835361   -73.84857535763453    -0.00003634696260     0.00000060089668

 # Orbital energies #
 Irrep: 1
      1: -20.3291895
      2: -1.2279279
      3: -0.5204771
      4: -0.4120097
      5: -0.2942184
      6:  0.3234615
      7:  0.4350538


 # Orbital populations #
 Irrep: 1
      1:  2.0000000
      2:  1.9548867
      3:  1.7033050
      4:  1.6162009
      5:  1.5009577
      6:  0.6798484
      7:  0.5448051

48   -81.85093115864316   -73.84856470792408     0.00001064971045     0.00000048612350

 # Orbital energies #
 Irrep: 1
      1: -20.3291890
      2: -1.2279276
      3: -0.5204768
      4: -0.4120093
      5: -0.2942181
      6:  0.3234618
      7:  0.4350541


 # Orbital populations #
 Irrep: 1
      1:  2.0000000
      2:  1.9548877
      3:  1.7033111
      4:  1.6162083
      5:  1.5009666
      6:  0.6798592
      7:  0.5448146

49   -81.85106310523074   -73.84869665451166    -0.00013194658757     0.00000191053963

 # Orbital energies #
 Irrep: 1
      1: -20.3291641
      2: -1.2279091
      3: -0.5204598
      4: -0.4119927
      5: -0.2942009
      6:  0.3234762
      7:  0.4350692


 # Orbital populations #
 Irrep: 1
      1:  2.0000000
      2:  1.9548864
      3:  1.7033048
      4:  1.6162008
      5:  1.5009570
      6:  0.6798512
      7:  0.5448068

50   -81.85083107120289   -73.84846462048381     0.00023203402785     0.00000058981215

 # Orbital energies #
 Irrep: 1
      1: -20.3291886
      2: -1.2279273
      3: -0.5204765
      4: -0.4120091
      5: -0.2942178
      6:  0.3234620
      7:  0.4350543


 # Orbital populations #
 Irrep: 1
      1:  2.0000000
      2:  1.9548865
      3:  1.7033043
      4:  1.6162000
      5:  1.5009566
      6:  0.6798472
      7:  0.5448040

51   -81.85091121090451   -73.84854476018543    -0.00008013970162     0.00000027094543

 # Orbital energies #
 Irrep: 1
      1: -20.3291874
      2: -1.2279264
      3: -0.5204757
      4: -0.4120083
      5: -0.2942170
      6:  0.3234627
      7:  0.4350550


 # Orbital populations #
 Irrep: 1
      1:  2.0000000
      2:  1.9548870
      3:  1.7033073
      4:  1.6162036
      5:  1.5009610
      6:  0.6798526
      7:  0.5448088

52   -81.85097310224471   -73.84860665152563    -0.00006189134020     0.00000093925966

 # Orbital energies #
 Irrep: 1
      1: -20.3291931
      2: -1.2279307
      3: -0.5204796
      4: -0.4120121
      5: -0.2942210
      6:  0.3234594
      7:  0.4350515


 # Orbital populations #
 Irrep: 1
      1:  2.0000000
      2:  1.9548869
      3:  1.7033061
      4:  1.6162022
      5:  1.5009594
      6:  0.6798498
      7:  0.5448065

53   -81.85096884480097   -73.84860239408189     0.00000425744373     0.00000089228493

 # Orbital energies #
 Irrep: 1
      1: -20.3291872
      2: -1.2279263
      3: -0.5204756
      4: -0.4120082
      5: -0.2942169
      6:  0.3234628
      7:  0.4350551


 # Orbital populations #
 Irrep: 1
      1:  2.0000000
      2:  1.9548860
      3:  1.7033017
      4:  1.6161968
      5:  1.5009527
      6:  0.6798427
      7:  0.5448000

54   -81.85084842790494   -73.84848197718586     0.00012041689604     0.00000040654223

 # Orbital energies #
 Irrep: 1
      1: -20.3291855
      2: -1.2279250
      3: -0.5204744
      4: -0.4120070
      5: -0.2942157
      6:  0.3234638
      7:  0.4350561


 # Orbital populations #
 Irrep: 1
      1:  2.0000000
      2:  1.9548867
      3:  1.7033054
      4:  1.6162013
      5:  1.5009582
      6:  0.6798495
      7:  0.5448060

55   -81.85092439314015   -73.84855794242107    -0.00007596523521     0.00000041378545

 # Orbital energies #
 Irrep: 1
      1: -20.3291805
      2: -1.2279213
      3: -0.5204710
      4: -0.4120037
      5: -0.2942122
      6:  0.3234667
      7:  0.4350592


 # Orbital populations #
 Irrep: 1
      1:  2.0000000
      2:  1.9548868
      3:  1.7033061
      4:  1.6162023
      5:  1.5009592
      6:  0.6798515
      7:  0.5448075

56   -81.85092155266673   -73.84855510194765     0.00000284047341     0.00000038401333

 # Orbital energies #
 Irrep: 1
      1: -20.3291927
      2: -1.2279303
      3: -0.5204793
      4: -0.4120118
      5: -0.2942207
      6:  0.3234596
      7:  0.4350518


 # Orbital populations #
 Irrep: 1
      1:  2.0000000
      2:  1.9548867
      3:  1.7033054
      4:  1.6162013
      5:  1.5009583
      6:  0.6798486
      7:  0.5448054

57   -81.85095124372486   -73.84858479300578    -0.00002969105813     0.00000070236485

 # Orbital energies #
 Irrep: 1
      1: -20.3291858
      2: -1.2279252
      3: -0.5204746
      4: -0.4120072
      5: -0.2942159
      6:  0.3234637
      7:  0.4350560


 # Orbital populations #
 Irrep: 1
      1:  2.0000000
      2:  1.9548859
      3:  1.7033010
      4:  1.6161959
      5:  1.5009517
      6:  0.6798417
      7:  0.5447990

58   -81.85082753265945   -73.84846108194037     0.00012371106541     0.00000063184182

 # Orbital energies #
 Irrep: 1
      1: -20.3291853
      2: -1.2279248
      3: -0.5204742
      4: -0.4120068
      5: -0.2942155
      6:  0.3234639
      7:  0.4350563


 # Orbital populations #
 Irrep: 1
      1:  2.0000000
      2:  1.9548867
      3:  1.7033054
      4:  1.6162013
      5:  1.5009582
      6:  0.6798495
      7:  0.5448060

59   -81.85092291359683   -73.84855646287775    -0.00009538093738     0.00000039786525

 # Orbital energies #
 Irrep: 1
      1: -20.3291923
      2: -1.2279301
      3: -0.5204791
      4: -0.4120116
      5: -0.2942204
      6:  0.3234598
      7:  0.4350520


 # Orbital populations #
 Irrep: 1
      1:  2.0000000
      2:  1.9548867
      3:  1.7033054
      4:  1.6162013
      5:  1.5009583
      6:  0.6798486
      7:  0.5448054

60   -81.85094970188835   -73.84858325116927    -0.00002678829152     0.00000068578466

 # Orbital energies #
 Irrep: 1
      1: -20.3291838
      2: -1.2279237
      3: -0.5204732
      4: -0.4120059
      5: -0.2942145
      6:  0.3234648
      7:  0.4350572


 # Orbital populations #
 Irrep: 1
      1:  2.0000000
      2:  1.9548866
      3:  1.7033049
      4:  1.6162007
      5:  1.5009574
      6:  0.6798488
      7:  0.5448053

61   -81.85090640569450   -73.84853995497542     0.00004329619385     0.00000021992144

 # Orbital energies #
 Irrep: 1
      1: -20.3291878
      2: -1.2279267
      3: -0.5204760
      4: -0.4120086
      5: -0.2942173
      6:  0.3234624
      7:  0.4350547


 # Orbital populations #
 Irrep: 1
      1:  2.0000000
      2:  1.9548865
      3:  1.7033040
      4:  1.6161997
      5:  1.5009562
      6:  0.6798469
      7:  0.5448037

62   -81.85090345695629   -73.84853700623721     0.00000294873821     0.00000018737790

 # Orbital energies #
 Irrep: 1
      1: -20.3291878
      2: -1.2279267
      3: -0.5204760
      4: -0.4120085
      5: -0.2942173
      6:  0.3234625
      7:  0.4350548


 # Orbital populations #
 Irrep: 1
      1:  2.0000000
      2:  1.9548865
      3:  1.7033042
      4:  1.6161999
      5:  1.5009565
      6:  0.6798472
      7:  0.5448040

63   -81.85090753755021   -73.84854108683113    -0.00000408059392     0.00000023143457

 # Orbital energies #
 Irrep: 1
      1: -20.3291971
      2: -1.2279336
      3: -0.5204823
      4: -0.4120148
      5: -0.2942238
      6:  0.3234571
      7:  0.4350491


 # Orbital populations #
 Irrep: 1
      1:  2.0000000
      2:  1.9548867
      3:  1.7033052
      4:  1.6162010
      5:  1.5009581
      6:  0.6798478
      7:  0.5448048

64   -81.85096455104151   -73.84859810032243    -0.00005701349130     0.00000084522939

 # Orbital energies #
 Irrep: 1
      1: -20.3291918
      2: -1.2279296
      3: -0.5204787
      4: -0.4120112
      5: -0.2942200
      6:  0.3234602
      7:  0.4350524


 # Orbital populations #
 Irrep: 1
      1:  2.0000000
      2:  1.9548867
      3:  1.7033050
      4:  1.6162008
      5:  1.5009577
      6:  0.6798480
      7:  0.5448048

65   -81.85093889797557   -73.84857244725649     0.00002565306595     0.00000056926199

 # Orbital energies #
 Irrep: 1
      1: -20.3291846
      2: -1.2279243
      3: -0.5204738
      4: -0.4120064
      5: -0.2942151
      6:  0.3234643
      7:  0.4350567


 # Orbital populations #
 Irrep: 1
      1:  2.0000000
      2:  1.9548864
      3:  1.7033039
      4:  1.6161995
      5:  1.5009559
      6:  0.6798470
      7:  0.5448037

66   -81.85088750087472   -73.84852105015564     0.00005139710085     0.00000001570307

 # Orbital energies #
 Irrep: 1
      1: -20.3291848
      2: -1.2279244
      3: -0.5204739
      4: -0.4120065
      5: -0.2942152
      6:  0.3234642
      7:  0.4350566


 # Orbital populations #
 Irrep: 1
      1:  2.0000000
      2:  1.9548868
      3:  1.7033062
      4:  1.6162024
      5:  1.5009594
      6:  0.6798511
      7:  0.5448073

67   -81.85094010664849   -73.84857365592941    -0.00005260577377     0.00000058354538

 # Orbital energies #
 Irrep: 1
      1: -20.3291851
      2: -1.2279247
      3: -0.5204741
      4: -0.4120067
      5: -0.2942154
      6:  0.3234640
      7:  0.4350564


 # Orbital populations #
 Irrep: 1
      1:  2.0000000
      2:  1.9548865
      3:  1.7033042
      4:  1.6161999
      5:  1.5009564
      6:  0.6798474
      7:  0.5448041

68   -81.85089589047888   -73.84852943975980     0.00004421616961     0.00000010618587

 # Orbital energies #
 Irrep: 1
      1: -20.3291865
      2: -1.2279257
      3: -0.5204751
      4: -0.4120077
      5: -0.2942164
      6:  0.3234632
      7:  0.4350556


 # Orbital populations #
 Irrep: 1
      1:  2.0000000
      2:  1.9548871
      3:  1.7033079
      4:  1.6162044
      5:  1.5009619
      6:  0.6798539
      7:  0.5448099

69   -81.85098389857860   -73.84861744785952    -0.00008800809972     0.00000105596970

 # Orbital energies #
 Irrep: 1
      1: -20.3291847
      2: -1.2279244
      3: -0.5204739
      4: -0.4120065
      5: -0.2942151
      6:  0.3234643
      7:  0.4350566


 # Orbital populations #
 Irrep: 1
      1:  2.0000000
      2:  1.9548863
      3:  1.7033034
      4:  1.6161989
      5:  1.5009553
      6:  0.6798462
      7:  0.5448030

70   -81.85087771630015   -73.84851126558107     0.00010618227846     0.00000008993302

 # Orbital energies #
 Irrep: 1
      1: -20.3291835
      2: -1.2279235
      3: -0.5204731
      4: -0.4120057
      5: -0.2942143
      6:  0.3234649
      7:  0.4350574


 # Orbital populations #
 Irrep: 1
      1:  2.0000000
      2:  1.9548864
      3:  1.7033039
      4:  1.6161996
      5:  1.5009560
      6:  0.6798472
      7:  0.5448039

71   -81.85088469163003   -73.84851824091095    -0.00000697532988     0.00000001442974

 # Orbital energies #
 Irrep: 1
      1: -20.3291830
      2: -1.2279231
      3: -0.5204727
      4: -0.4120054
      5: -0.2942140
      6:  0.3234652
      7:  0.4350577


 # Orbital populations #
 Irrep: 1
      1:  2.0000000
      2:  1.9548868
      3:  1.7033062
      4:  1.6162024
      5:  1.5009593
      6:  0.6798513
      7:  0.5448074

72   -81.85093279260755   -73.84856634188847    -0.00004810097752     0.00000050490078

 # Orbital energies #
 Irrep: 1
      1: -20.3291833
      2: -1.2279233
      3: -0.5204729
      4: -0.4120055
      5: -0.2942142
      6:  0.3234651
      7:  0.4350575


 # Orbital populations #
 Irrep: 1
      1:  2.0000000
      2:  1.9548870
      3:  1.7033072
      4:  1.6162036
      5:  1.5009608
      6:  0.6798530
      7:  0.5448089

73   -81.85095551122446   -73.84858906050538    -0.00002271861690     0.00000075009463

 # Orbital energies #
 Irrep: 1
      1: -20.3291842
      2: -1.2279240
      3: -0.5204735
      4: -0.4120061
      5: -0.2942148
      6:  0.3234646
      7:  0.4350570


 # Orbital populations #
 Irrep: 1
      1:  2.0000000
      2:  1.9548866
      3:  1.7033049
      4:  1.6162007
      5:  1.5009574
      6:  0.6798488
      7:  0.5448053

74   -81.85090815285103   -73.84854170213195     0.00004735837342     0.00000023871483

 # Orbital energies #
 Irrep: 1
      1: -20.3291835
      2: -1.2279235
      3: -0.5204730
      4: -0.4120056
      5: -0.2942143
      6:  0.3234650
      7:  0.4350574


 # Orbital populations #
 Irrep: 1
      1:  2.0000000
      2:  1.9548862
      3:  1.7033029
      4:  1.6161983
      5:  1.5009544
      6:  0.6798454
      7:  0.5448022

75   -81.85086093306766   -73.84849448234858     0.00004721978337     0.00000027088180

 # Orbital energies #
 Irrep: 1
      1: -20.3291830
      2: -1.2279231
      3: -0.5204727
      4: -0.4120053
      5: -0.2942140
      6:  0.3234653
      7:  0.4350577


 # Orbital populations #
 Irrep: 1
      1:  2.0000000
      2:  1.9548868
      3:  1.7033062
      4:  1.6162023
      5:  1.5009593
      6:  0.6798513
      7:  0.5448074

76   -81.85093247621865   -73.84856602549957    -0.00007154315098     0.00000050148931

 # Orbital energies #
 Irrep: 1
      1: -20.3291838
      2: -1.2279237
      3: -0.5204732
      4: -0.4120058
      5: -0.2942145
      6:  0.3234648
      7:  0.4350572


 # Orbital populations #
 Irrep: 1
      1:  2.0000000
      2:  1.9548865
      3:  1.7033041
      4:  1.6161998
      5:  1.5009563
      6:  0.6798476
      7:  0.5448042

77   -81.85089008071866   -73.84852362999958     0.00004239549999     0.00000004370537

 # Orbital energies #
 Irrep: 1
      1: -20.3291831
      2: -1.2279232
      3: -0.5204728
      4: -0.4120054
      5: -0.2942140
      6:  0.3234652
      7:  0.4350576


 # Orbital populations #
 Irrep: 1
      1:  2.0000000
      2:  1.9548863
      3:  1.7033034
      4:  1.6161989
      5:  1.5009552
      6:  0.6798463
      7:  0.5448030

78   -81.85087052283397   -73.84850407211489     0.00001955788468     0.00000016730241

 # Orbital energies #
 Irrep: 1
      1: -20.3291841
      2: -1.2279239
      3: -0.5204734
      4: -0.4120061
      5: -0.2942147
      6:  0.3234646
      7:  0.4350570


 # Orbital populations #
 Irrep: 1
      1:  2.0000000
      2:  1.9548868
      3:  1.7033062
      4:  1.6162024
      5:  1.5009594
      6:  0.6798512
      7:  0.5448074

79   -81.85093734739553   -73.84857089667645    -0.00006682456156     0.00000055388060

 # Orbital energies #
 Irrep: 1
      1: -20.3291832
      2: -1.2279233
      3: -0.5204728
      4: -0.4120055
      5: -0.2942141
      6:  0.3234651
      7:  0.4350576


 # Orbital populations #
 Irrep: 1
      1:  2.0000000
      2:  1.9549008
      3:  1.7033866
      4:  1.6163011
      5:  1.5010786
      6:  0.6799941
      7:  0.5449336

80   -81.85271793179928   -73.85035148108020    -0.00178058440375     0.00001977392475

 # Orbital energies #
 Irrep: 1
      1: -20.3291831
      2: -1.2279232
      3: -0.5204728
      4: -0.4120054
      5: -0.2942140
      6:  0.3234652
      7:  0.4350576


 # Orbital populations #
 Irrep: 1
      1:  2.0000000
      2:  1.9548871
      3:  1.7033078
      4:  1.6162044
      5:  1.5009618
      6:  0.6798542
      7:  0.5448100

81   -81.85096913605159   -73.84860268533251     0.00174879574769     0.00000089720813

 # Orbital energies #
 Irrep: 1
      1: -20.3291840
      2: -1.2279238
      3: -0.5204733
      4: -0.4120060
      5: -0.2942146
      6:  0.3234647
      7:  0.4350571


 # Orbital populations #
 Irrep: 1
      1:  2.0000000
      2:  1.9548871
      3:  1.7033078
      4:  1.6162044
      5:  1.5009618
      6:  0.6798541
      7:  0.5448099

82   -81.85097281964097   -73.84860636892189    -0.00000368358938     0.00000093681869

 # Orbital energies #
 Irrep: 1
      1: -20.3291836
      2: -1.2279236
      3: -0.5204731
      4: -0.4120058
      5: -0.2942144
      6:  0.3234649
      7:  0.4350573


 # Orbital populations #
 Irrep: 1
      1:  2.0000000
      2:  1.9548864
      3:  1.7033036
      4:  1.6161991
      5:  1.5009555
      6:  0.6798466
      7:  0.5448033

83   -81.85087700615465   -73.84851055543557     0.00009581348633     0.00000009740681

 # Orbital energies #
 Irrep: 1
      1: -20.3291828
      2: -1.2279230
      3: -0.5204726
      4: -0.4120052
      5: -0.2942138
      6:  0.3234654
      7:  0.4350578


 # Orbital populations #
 Irrep: 1
      1:  2.0000000
      2:  1.9548864
      3:  1.7033039
      4:  1.6161996
      5:  1.5009560
      6:  0.6798473
      7:  0.5448039

84   -81.85088158074964   -73.84851513003056    -0.00000457459500     0.00000004788513

 # Orbital energies #
 Irrep: 1
      1: -20.3291827
      2: -1.2279229
      3: -0.5204725
      4: -0.4120052
      5: -0.2942138
      6:  0.3234654
      7:  0.4350578


 # Orbital populations #
 Irrep: 1
      1:  2.0000000
      2:  1.9548866
      3:  1.7033053
      4:  1.6162013
      5:  1.5009580
      6:  0.6798498
      7:  0.5448061

85   -81.85091217833453   -73.84854572761544    -0.00003059758488     0.00000028242666

 # Orbital energies #
 Irrep: 1
      1: -20.3291825
      2: -1.2279227
      3: -0.5204723
      4: -0.4120050
      5: -0.2942136
      6:  0.3234656
      7:  0.4350580


 # Orbital populations #
 Irrep: 1
      1:  2.0000000
      2:  1.9548866
      3:  1.7033053
      4:  1.6162013
      5:  1.5009580
      6:  0.6798498
      7:  0.5448061

86   -81.85091073920964   -73.84854428849056     0.00000143912489     0.00000026694235

 # Orbital energies #
 Irrep: 1
      1: -20.3291837
      2: -1.2279236
      3: -0.5204731
      4: -0.4120058
      5: -0.2942144
      6:  0.3234649
      7:  0.4350573


 # Orbital populations #
 Irrep: 1
      1:  2.0000000
      2:  1.9548866
      3:  1.7033051
      4:  1.6162011
      5:  1.5009578
      6:  0.6798494
      7:  0.5448057

87   -81.85091203970671   -73.84854558898763    -0.00000130049708     0.00000028076677

 # Orbital energies #
 Irrep: 1
      1: -20.3291834
      2: -1.2279235
      3: -0.5204730
      4: -0.4120056
      5: -0.2942143
      6:  0.3234650
      7:  0.4350574


 # Orbital populations #
 Irrep: 1
      1:  2.0000000
      2:  1.9548862
      3:  1.7033029
      4:  1.6161983
      5:  1.5009544
      6:  0.6798453
      7:  0.5448022

88   -81.85086081014684   -73.84849435942776     0.00005122955987     0.00000027220721

 # Orbital energies #
 Irrep: 1
      1: -20.3291828
      2: -1.2279230
      3: -0.5204726
      4: -0.4120052
      5: -0.2942138
      6:  0.3234653
      7:  0.4350578


 # Orbital populations #
 Irrep: 1
      1:  2.0000000
      2:  1.9548864
      3:  1.7033039
      4:  1.6161996
      5:  1.5009560
      6:  0.6798473
      7:  0.5448039

89   -81.85088176670202   -73.84851531598294    -0.00002095655518     0.00000004588004

 # Orbital energies #
 Irrep: 1
      1: -20.3291827
      2: -1.2279229
      3: -0.5204725
      4: -0.4120051
      5: -0.2942137
      6:  0.3234654
      7:  0.4350579


 # Orbital populations #
 Irrep: 1
      1:  2.0000000
      2:  1.9548866
      3:  1.7033048
      4:  1.6162007
      5:  1.5009574
      6:  0.6798489
      7:  0.5448054

90   -81.85090178737269   -73.84853533665361    -0.00002002067068     0.00000017026316

 # Orbital energies #
 Irrep: 1
      1: -20.3291826
      2: -1.2279228
      3: -0.5204724
      4: -0.4120051
      5: -0.2942137
      6:  0.3234655
      7:  0.4350579


 # Orbital populations #
 Irrep: 1
      1:  2.0000000
      2:  1.9548868
      3:  1.7033062
      4:  1.6162023
      5:  1.5009593
      6:  0.6798513
      7:  0.5448074

91   -81.85093071418432   -73.84856426346524    -0.00002892681162     0.00000048254219

 # Orbital energies #
 Irrep: 1
      1: -20.3291833
      2: -1.2279233
      3: -0.5204729
      4: -0.4120055
      5: -0.2942142
      6:  0.3234651
      7:  0.4350575


 # Orbital populations #
 Irrep: 1
      1:  2.0000000
      2:  1.9548870
      3:  1.7033072
      4:  1.6162036
      5:  1.5009608
      6:  0.6798530
      7:  0.5448089

92   -81.85095553652530   -73.84858908580622    -0.00002482234099     0.00000075036738

 # Orbital energies #
 Irrep: 1
      1: -20.3291827
      2: -1.2279229
      3: -0.5204725
      4: -0.4120052
      5: -0.2942138
      6:  0.3234654
      7:  0.4350578


 # Orbital populations #
 Irrep: 1
      1:  2.0000000
      2:  1.9548905
      3:  1.7033275
      4:  1.6162286
      5:  1.5009910
      6:  0.6798893
      7:  0.5448410

93   -81.85140580366853   -73.84903935294945    -0.00045026714322     0.00000561091594

 # Orbital energies #
 Irrep: 1
      1: -20.3291856
      2: -1.2279251
      3: -0.5204745
      4: -0.4120071
      5: -0.2942158
      6:  0.3234637
      7:  0.4350561


 # Orbital populations #
 Irrep: 1
      1:  2.0000000
      2:  1.9548864
      3:  1.7033039
      4:  1.6161995
      5:  1.5009560
      6:  0.6798469
      7:  0.5448036

94   -81.85089182143173   -73.84852537071265     0.00051398223680     0.00000006216670

 # Orbital energies #
 Irrep: 1
      1: -20.3291830
      2: -1.2279231
      3: -0.5204727
      4: -0.4120053
      5: -0.2942139
      6:  0.3234653
      7:  0.4350577


 # Orbital populations #
 Irrep: 1
      1:  2.0000000
      2:  1.9548866
      3:  1.7033053
      4:  1.6162013
      5:  1.5009581
      6:  0.6798497
      7:  0.5448061

95   -81.85091328813776   -73.84854683741868    -0.00002146670603     0.00000029436273

 # Orbital energies #
 Irrep: 1
      1: -20.3291829
      2: -1.2279231
      3: -0.5204726
      4: -0.4120053
      5: -0.2942139
      6:  0.3234653
      7:  0.4350577


 # Orbital populations #
 Irrep: 1
      1:  2.0000000
      2:  1.9548865
      3:  1.7033042
      4:  1.6161999
      5:  1.5009564
      6:  0.6798478
      7:  0.5448044

96   -81.85088876294955   -73.84852231223047     0.00002452518821     0.00000002962911

 # Orbital energies #
 Irrep: 1
      1: -20.3291829
      2: -1.2279231
      3: -0.5204726
      4: -0.4120053
      5: -0.2942139
      6:  0.3234653
      7:  0.4350577


 # Orbital populations #
 Irrep: 1
      1:  2.0000000
      2:  1.9548864
      3:  1.7033041
      4:  1.6161998
      5:  1.5009563
      6:  0.6798476
      7:  0.5448042

97   -81.85088645441236   -73.84852000369328     0.00000230853719     0.00000000471231
Converged via commutator

 # Orbital energies #
 Irrep: 1
      1: -20.3291828
      2: -1.2279230
      3: -0.5204726
      4: -0.4120052
      5: -0.2942138
      6:  0.3234654
      7:  0.4350578


 # Orbital populations #
 Irrep: 1
      1:  2.0000000
      2:  1.9548867
      3:  1.7033058
      4:  1.6162019
      5:  1.5009588
      6:  0.6798507
      7:  0.5448069

Final orbital energies and populations: 

 # Orbital energies #
 Irrep: 1
      1: -20.3291828
      2: -1.2279230
      3: -0.5204726
      4: -0.4120052
      5: -0.2942138
      6:  0.3234654
      7:  0.4350578


 # Orbital populations #
 Irrep: 1
      1:  2.0000000
      2:  1.9548867
      3:  1.7033058
      4:  1.6162019
      5:  1.5009588
      6:  0.6798507
      7:  0.5448069

Total population: 9.999994
Reference energy from built in SCF: -74.942080
Difference between your SCF and reference SCF: 1.093560
Finished with run!

*** PSI4 exiting successfully. Buy a developer a beer!
